TIP4P/2005 data file

1080 atoms
720 bonds
360 angles
2 atom types
1 bond types
1 angle types

-1.1000000000000000e+01 1.1000000000000000e+01 xlo xhi
-1.1000000000000000e+01 1.1000000000000000e+01 ylo yhi
-1.1000000000000000e+01 1.1000000000000000e+01 zlo zhi

Masses

1 15.9994
2 1.008

Atoms # full

1 1 1 -1.1128 -2.271224 4.711335 -1.575462
2 1 2 0.5564 -2.297874 4.541487 -2.517096
3 1 2 0.5564 -1.562079 5.344841 -1.465848
4 2 1 -1.1128 0.373806 -9.012989 8.829121
5 2 2 0.5564 1.309405 -8.902938 8.998755
6 2 2 0.5564 -0.004813 -8.151475 9.004258
7 3 1 -1.1128 3.956982 -8.559416 -5.510099
8 3 2 0.5564 4.776352 -8.983996 -5.255944
9 3 2 0.5564 3.627752 -8.169093 -4.700478
10 4 1 -1.1128 -9.008138 -1.315745 -3.210521
11 4 2 0.5564 -8.443089 -1.653359 -3.905481
12 4 2 0.5564 -8.960877 -0.364272 -3.303778
13 5 1 -1.1128 4.447135 -8.549992 5.171154
14 5 2 0.5564 5.161826 -8.55574 4.534432
15 5 2 0.5564 4.339088 -7.627432 5.402326
16 6 1 -1.1128 -0.604811 -2.538478 -3.092795
17 6 2 0.5564 0.207431 -2.494741 -3.597357
18 6 2 0.5564 -0.811743 -3.472133 -3.05157
19 7 1 -1.1128 3.425617 2.072314 -3.394968
20 7 2 0.5564 4.312668 1.819237 -3.139381
21 7 2 0.5564 3.463925 3.024618 -3.483745
22 8 1 -1.1128 -8.030963 -4.695086 2.335428
23 8 2 0.5564 -7.96092 -4.990696 1.427716
24 8 2 0.5564 -8.814708 -4.145733 2.349117
25 9 1 -1.1128 8.878566 4.703492 0.144435
26 9 2 0.5564 8.973546 5.465178 0.716312
27 9 2 0.5564 8.895155 5.065125 -0.741668
28 10 1 -1.1128 -0.295803 8.43853 -3.23024
29 10 2 0.5564 0.342219 9.002471 -3.667425
30 10 2 0.5564 -0.775841 9.026433 -2.647003
31 11 1 -1.1128 3.47069 1.273405 -7.901765
32 11 2 0.5564 4.075203 0.742313 -7.383367
33 11 2 0.5564 3.745101 1.133641 -8.808074
34 12 1 -1.1128 3.297151 -1.999766 -0.6859
35 12 2 0.5564 2.867559 -1.49509 0.004741
36 12 2 0.5564 4.232917 -1.883169 -0.521649
37 13 1 -1.1128 2.801439 -1.68091 -2.989878
38 13 2 0.5564 2.050261 -2.012224 -2.497747
39 13 2 0.5564 2.943559 -2.331339 -3.677611
40 14 1 -1.1128 3.113227 -5.418438 7.402059
41 14 2 0.5564 3.253639 -6.269636 6.987357
42 14 2 0.5564 2.311434 -5.084733 6.999567
43 15 1 -1.1128 -5.013934 -4.590432 -5.43619
44 15 2 0.5564 -5.023566 -4.618392 -6.392933
45 15 2 0.5564 -5.605579 -5.294066 -5.169569
46 16 1 -1.1128 -2.839954 -3.27847 2.186347
47 16 2 0.5564 -3.1954 -2.847249 2.963481
48 16 2 0.5564 -3.246405 -4.145089 2.185726
49 17 1 -1.1128 -8.336041 8.724837 1.426132
50 17 2 0.5564 -8.951756 9.02658 2.094023
51 17 2 0.5564 -7.479942 9.016407 1.739683
52 18 1 -1.1128 6.753946 5.142412 1.20993
53 18 2 0.5564 6.33143 5.373397 2.03719
54 18 2 0.5564 6.718374 5.94525 0.689913
55 19 1 -1.1128 -8.416899 0.16144 8.73668
56 19 2 0.5564 -9.000338 0.872917 9.000558
57 19 2 0.5564 -8.918057 -0.635904 8.907897
58 20 1 -1.1128 8.506035 -7.052442 -6.074242
59 20 2 0.5564 8.623227 -7.564964 -6.874129
60 20 2 0.5564 8.444285 -6.146373 -6.37666
61 21 1 -1.1128 -5.085129 8.79423 -8.914054
62 21 2 0.5564 -4.446819 9.000897 -8.231352
63 21 2 0.5564 -5.043707 7.841885 -9.000969
64 22 1 -1.1128 -7.810287 8.296011 8.917733
65 22 2 0.5564 -7.983912 8.143126 7.98891
66 22 2 0.5564 -6.859846 8.21799 9.000229
67 23 1 -1.1128 0.487279 6.321376 -8.061519
68 23 2 0.5564 0.121479 7.170055 -7.812187
69 23 2 0.5564 0.612491 6.382882 -9.008499
70 24 1 -1.1128 7.986568 -8.738014 1.992545
71 24 2 0.5564 8.120764 -8.999901 2.903389
72 24 2 0.5564 8.685561 -8.107627 1.81861
73 25 1 -1.1128 -7.198538 -5.357822 7.145795
74 25 2 0.5564 -6.533583 -6.046337 7.142235
75 25 2 0.5564 -6.770589 -4.613062 7.568199
76 26 1 -1.1128 -1.667567 3.560706 5.616732
77 26 2 0.5564 -1.553299 4.444078 5.967201
78 26 2 0.5564 -0.795927 3.168253 5.666281
79 27 1 -1.1128 0.092338 -3.616379 -5.904048
80 27 2 0.5564 -0.275203 -4.013127 -5.114279
81 27 2 0.5564 -0.546545 -2.95021 -6.157579
82 28 1 -1.1128 0.661922 6.904947 -5.696835
83 28 2 0.5564 0.479543 7.07566 -4.772808
84 28 2 0.5564 0.61602 5.952343 -5.778506
85 29 1 -1.1128 -6.829324 -1.682605 0.920564
86 29 2 0.5564 -7.132369 -0.86744 1.320441
87 29 2 0.5564 -6.039307 -1.435036 0.440132
88 30 1 -1.1128 1.079561 9.020194 4.224551
89 30 2 0.5564 2.000414 8.826388 4.049331
90 30 2 0.5564 0.912025 8.632739 5.083645
91 31 1 -1.1128 -8.290013 6.176496 -3.383785
92 31 2 0.5564 -9.009067 6.181743 -2.751989
93 31 2 0.5564 -8.581417 5.580839 -4.074081
94 32 1 -1.1128 -3.871203 6.848808 -2.202962
95 32 2 0.5564 -3.094169 6.911592 -1.647527
96 32 2 0.5564 -4.008951 5.908527 -2.31755
97 33 1 -1.1128 -8.142783 8.970697 5.126729
98 33 2 0.5564 -8.130133 8.681534 4.214338
99 33 2 0.5564 -8.87834 8.499205 5.517733
100 34 1 -1.1128 -0.67148 -1.477058 8.072236
101 34 2 0.5564 -0.867053 -1.558074 9.005735
102 34 2 0.5564 -1.510929 -1.254739 7.669581
103 35 1 -1.1128 -2.32684 0.425752 -7.208038
104 35 2 0.5564 -2.263434 0.266966 -6.266232
105 35 2 0.5564 -1.441963 0.681562 -7.468392
106 36 1 -1.1128 -5.865086 -8.435869 1.956183
107 36 2 0.5564 -5.108071 -8.961003 1.696577
108 36 2 0.5564 -6.094303 -8.75953 2.827352
109 37 1 -1.1128 9.000563 -4.072423 -6.852843
110 37 2 0.5564 8.987448 -4.032671 -5.896559
111 37 2 0.5564 8.077311 -4.082843 -7.105289
112 38 1 -1.1128 -5.063237 -9.016126 -5.076189
113 38 2 0.5564 -5.750557 -8.882721 -4.423482
114 38 2 0.5564 -5.513448 -8.94106 -5.917561
115 39 1 -1.1128 2.324673 -3.457294 -6.324468
116 39 2 0.5564 2.224731 -3.5301 -5.375288
117 39 2 0.5564 2.098647 -4.325985 -6.656914
118 40 1 -1.1128 -1.773305 6.247254 -8.441978
119 40 2 0.5564 -1.537844 5.511205 -9.006799
120 40 2 0.5564 -2.260188 6.841648 -9.012831
121 41 1 -1.1128 6.008916 -6.672544 -0.779766
122 41 2 0.5564 5.160623 -6.659987 -0.336514
123 41 2 0.5564 5.920335 -7.351843 -1.4483
124 42 1 -1.1128 -2.163256 -6.763809 8.47092
125 42 2 0.5564 -1.265563 -6.431625 8.465235
126 42 2 0.5564 -2.122308 -7.556851 9.005373
127 43 1 -1.1128 -2.216563 -5.96782 -3.775199
128 43 2 0.5564 -2.198416 -6.113493 -4.721076
129 43 2 0.5564 -1.380561 -5.543723 -3.581614
130 44 1 -1.1128 -1.272772 -6.23461 -8.878911
131 44 2 0.5564 -0.359424 -6.493646 -9.001088
132 44 2 0.5564 -1.771112 -7.040281 -9.015964
133 45 1 -1.1128 0.799939 -8.759086 5.753946
134 45 2 0.5564 0.831759 -9.003012 6.678997
135 45 2 0.5564 1.699925 -8.513702 5.539366
136 46 1 -1.1128 -2.102439 1.407856 5.488891
137 46 2 0.5564 -1.942619 1.641591 4.57453
138 46 2 0.5564 -1.362145 0.849658 5.726826
139 47 1 -1.1128 9.021794 -4.747389 7.145011
140 47 2 0.5564 9.00106 -3.799578 7.012884
141 47 2 0.5564 9.000824 -5.113469 6.260829
142 48 1 -1.1128 -0.72196 -3.999247 7.762209
143 48 2 0.5564 0.07282 -3.49175 7.597883
144 48 2 0.5564 -1.432569 -3.441523 7.445648
145 49 1 -1.1128 -2.283186 7.235198 -4.161706
146 49 2 0.5564 -2.464248 7.916639 -3.514337
147 49 2 0.5564 -2.277956 6.421147 -3.658192
148 50 1 -1.1128 -5.640535 -5.143026 -8.438073
149 50 2 0.5564 -6.480421 -4.953136 -8.020024
150 50 2 0.5564 -5.478604 -4.388829 -9.004816
151 51 1 -1.1128 9.001754 0.753201 2.920489
152 51 2 0.5564 8.463335 1.370951 2.425795
153 51 2 0.5564 9.007306 -0.041302 2.386668
154 52 1 -1.1128 1.755083 2.835498 -5.019465
155 52 2 0.5564 1.421556 2.569738 -4.162515
156 52 2 0.5564 1.129959 3.491767 -5.327302
157 53 1 -1.1128 4.921829 1.369477 5.380329
158 53 2 0.5564 4.849681 1.276492 6.330266
159 53 2 0.5564 4.63921 0.52299 5.034183
160 54 1 -1.1128 -6.229254 0.187569 8.968212
161 54 2 0.5564 -6.298791 -0.450813 8.258378
162 54 2 0.5564 -5.533023 0.78212 8.688922
163 55 1 -1.1128 8.498797 -6.675416 8.261994
164 55 2 0.5564 9.058793 -6.913863 7.523225
165 55 2 0.5564 8.955712 -7.018407 9.02999
166 56 1 -1.1128 1.975151 5.219707 1.699833
167 56 2 0.5564 1.977407 4.935249 0.78588
168 56 2 0.5564 1.070152 5.097918 1.986847
169 57 1 -1.1128 8.078414 -8.879734 8.251724
170 57 2 0.5564 7.704868 -9.004497 7.379296
171 57 2 0.5564 9.017012 -9.026113 8.134086
172 58 1 -1.1128 4.639705 -2.028059 -6.275748
173 58 2 0.5564 4.046378 -2.313174 -5.580835
174 58 2 0.5564 4.140206 -1.373873 -6.764391
175 59 1 -1.1128 4.025818 -2.619616 7.618744
176 59 2 0.5564 4.186771 -3.01803 8.474076
177 59 2 0.5564 3.335257 -3.156516 7.230034
178 60 1 -1.1128 6.991738 5.547047 -1.733767
179 60 2 0.5564 6.240643 5.119817 -1.321987
180 60 2 0.5564 7.362815 4.87796 -2.308967
181 61 1 -1.1128 6.670819 -6.714725 -8.464534
182 61 2 0.5564 6.613526 -5.998585 -7.832006
183 61 2 0.5564 5.883806 -6.62396 -9.001753
184 62 1 -1.1128 -1.760746 5.924485 -5.848568
185 62 2 0.5564 -2.364467 5.501835 -6.459403
186 62 2 0.5564 -1.4538 6.702454 -6.314165
187 63 1 -1.1128 1.167077 -4.887595 0.187264
188 63 2 0.5564 0.346754 -5.24319 -0.154573
189 63 2 0.5564 1.428225 -4.22713 -0.454469
190 64 1 -1.1128 -0.960951 4.273812 0.357513
191 64 2 0.5564 -1.031646 4.177697 1.307248
192 64 2 0.5564 -0.239268 4.889912 0.23171
193 65 1 -1.1128 -5.18373 -5.67551 3.976003
194 65 2 0.5564 -5.787201 -4.96961 3.744142
195 65 2 0.5564 -4.337675 -5.391243 3.63015
196 66 1 -1.1128 -0.822023 3.934212 -6.506087
197 66 2 0.5564 -1.442717 3.42566 -7.027955
198 66 2 0.5564 -0.475818 4.587369 -7.114166
199 67 1 -1.1128 5.911999 -3.945287 1.366316
200 67 2 0.5564 5.590783 -3.063293 1.553772
201 67 2 0.5564 5.25225 -4.526446 1.744755
202 68 1 -1.1128 -7.584134 -3.514035 5.738133
203 68 2 0.5564 -6.629364 -3.455764 5.702769
204 68 2 0.5564 -7.811862 -4.141348 5.051948
205 69 1 -1.1128 5.846883 9.002849 5.398624
206 69 2 0.5564 5.393754 8.185933 5.189927
207 69 2 0.5564 6.620645 8.998807 4.835146
208 70 1 -1.1128 7.885291 5.20991 6.351798
209 70 2 0.5564 7.805361 5.440074 7.27747
210 70 2 0.5564 8.813261 5.006694 6.234294
211 71 1 -1.1128 -8.199248 -3.749299 -3.288045
212 71 2 0.5564 -7.710202 -3.346113 -2.570753
213 71 2 0.5564 -8.777371 -4.380388 -2.859406
214 72 1 -1.1128 -1.034729 1.917847 -3.890319
215 72 2 0.5564 -1.473196 1.499428 -4.631199
216 72 2 0.5564 -0.320296 1.321503 -3.666286
217 73 1 -1.1128 9.003911 -6.785862 -1.787943
218 73 2 0.5564 8.667178 -6.973586 -2.664072
219 73 2 0.5564 8.923409 -7.615344 -1.31708
220 74 1 -1.1128 4.712958 2.924965 2.994053
221 74 2 0.5564 4.64272 3.011753 3.944719
222 74 2 0.5564 5.445423 3.492798 2.754694
223 75 1 -1.1128 -8.910045 2.727144 4.802593
224 75 2 0.5564 -9.004814 2.712914 5.754984
225 75 2 0.5564 -9.036824 1.816843 4.535178
226 76 1 -1.1128 7.128218 4.018777 4.659526
227 76 2 0.5564 7.765292 3.430066 5.064234
228 76 2 0.5564 6.307793 3.83597 5.117474
229 77 1 -1.1128 0.776518 -9.027177 -4.933942
230 77 2 0.5564 1.664514 -8.969682 -5.286632
231 77 2 0.5564 0.333578 -8.248394 -5.270889
232 78 1 -1.1128 -8.743668 -0.582201 -8.98016
233 78 2 0.5564 -9.001361 -0.811155 -8.087184
234 78 2 0.5564 -8.780659 0.374013 -9.002915
235 79 1 -1.1128 -0.42819 -1.928528 5.877611
236 79 2 0.5564 -0.46172 -2.833677 5.568073
237 79 2 0.5564 0.460338 -1.824044 6.217955
238 80 1 -1.1128 6.645247 2.731207 -2.797447
239 80 2 0.5564 5.925311 3.215668 -2.393439
240 80 2 0.5564 6.327973 2.517222 -3.674818
241 81 1 -1.1128 -2.931197 -3.357795 5.11007
242 81 2 0.5564 -3.125927 -3.460716 6.041585
243 81 2 0.5564 -2.566059 -2.475978 5.037227
244 82 1 -1.1128 6.932207 4.611259 -8.196913
245 82 2 0.5564 7.022254 4.409633 -7.265532
246 82 2 0.5564 6.004904 4.820726 -8.308554
247 83 1 -1.1128 3.012437 3.882286 -7.520309
248 83 2 0.5564 2.899282 3.895676 -6.569915
249 83 2 0.5564 2.413132 3.20039 -7.82376
250 84 1 -1.1128 -8.455353 6.90447 0.199642
251 84 2 0.5564 -8.911434 6.722542 -0.622018
252 84 2 0.5564 -7.56797 7.145073 -0.066618
253 85 1 -1.1128 0.859873 -0.76154 -7.378046
254 85 2 0.5564 1.31181 -1.101539 -6.605785
255 85 2 0.5564 0.148775 -1.383259 -7.533083
256 86 1 -1.1128 2.352133 -7.274051 -0.494913
257 86 2 0.5564 2.957358 -7.887049 -0.077578
258 86 2 0.5564 1.760559 -7.004945 0.207835
259 87 1 -1.1128 -3.917096 -1.836347 7.645278
260 87 2 0.5564 -4.168156 -1.465177 8.491111
261 87 2 0.5564 -3.635505 -1.08276 7.126584
262 88 1 -1.1128 -9.004914 5.755582 7.223781
263 88 2 0.5564 -8.84263 6.560245 6.731428
264 88 2 0.5564 -8.165939 5.29487 7.213931
265 89 1 -1.1128 6.898149 -3.155482 6.96702
266 89 2 0.5564 6.166041 -2.568966 6.776627
267 89 2 0.5564 6.960173 -3.719878 6.196409
268 90 1 -1.1128 -4.681948 0.046568 -4.325041
269 90 2 0.5564 -4.724802 0.078304 -3.369328
270 90 2 0.5564 -4.258803 -0.789909 -4.518652
271 91 1 -1.1128 8.181305 -1.779737 -2.978788
272 91 2 0.5564 8.608208 -1.812306 -2.122678
273 91 2 0.5564 8.766843 -2.267874 -3.557665
274 92 1 -1.1128 -4.567373 -8.950042 5.57699
275 92 2 0.5564 -5.185404 -8.769693 4.868652
276 92 2 0.5564 -4.512041 -8.127008 6.062567
277 93 1 -1.1128 -0.736212 3.068084 -2.039717
278 93 2 0.5564 0.133389 3.087073 -2.439299
279 93 2 0.5564 -0.751958 2.253171 -1.53782
280 94 1 -1.1128 5.274809 -5.402187 6.998887
281 94 2 0.5564 5.197552 -5.568189 6.059362
282 94 2 0.5564 5.095086 -4.466721 7.092883
283 95 1 -1.1128 -2.019742 0.407795 -1.173518
284 95 2 0.5564 -1.937982 -0.500169 -0.881716
285 95 2 0.5564 -2.045046 0.91856 -0.364376
286 96 1 -1.1128 8.864029 -0.231559 -4.384486
287 96 2 0.5564 8.861957 -0.263791 -5.341141
288 96 2 0.5564 9.020894 0.689335 -4.17573
289 97 1 -1.1128 3.571585 -5.176796 -8.051502
290 97 2 0.5564 3.572835 -5.173843 -9.008696
291 97 2 0.5564 4.198438 -5.859665 -7.812802
292 98 1 -1.1128 2.183487 -2.185993 8.832422
293 98 2 0.5564 1.651304 -2.008641 8.05682
294 98 2 0.5564 2.047298 -3.116817 9.009201
295 99 1 -1.1128 -7.927769 -7.458312 8.894965
296 99 2 0.5564 -7.664651 -6.544044 9.000389
297 99 2 0.5564 -7.126644 -7.909413 8.628623
298 100 1 -1.1128 -7.548998 -6.278974 3.872628
299 100 2 0.5564 -8.368516 -6.366054 4.359494
300 100 2 0.5564 -7.168205 -7.157087 3.884715
301 101 1 -1.1128 1.524164 -5.977435 -7.990499
302 101 2 0.5564 1.981352 -6.616631 -8.536978
303 101 2 0.5564 1.42159 -5.210114 -8.553464
304 102 1 -1.1128 3.363805 -5.733117 4.858228
305 102 2 0.5564 3.355824 -4.803103 5.084595
306 102 2 0.5564 2.453431 -6.011925 4.9568
307 103 1 -1.1128 5.388607 -3.669516 3.764891
308 103 2 0.5564 5.35081 -3.840324 4.705969
309 103 2 0.5564 6.323448 -3.602112 3.570572
310 104 1 -1.1128 -5.319138 -2.97966 -3.972837
311 104 2 0.5564 -5.536627 -2.216331 -3.437805
312 104 2 0.5564 -5.761345 -3.709967 -3.540014
313 105 1 -1.1128 6.29236 3.095173 -0.190965
314 105 2 0.5564 6.299483 3.036537 0.764411
315 105 2 0.5564 7.185763 3.349062 -0.422489
316 106 1 -1.1128 -3.264798 -8.290327 0.701337
317 106 2 0.5564 -3.214269 -9.001295 0.062429
318 106 2 0.5564 -2.867636 -8.651264 1.493939
319 107 1 -1.1128 -4.992962 -8.866573 -8.053211
320 107 2 0.5564 -4.843684 -8.826434 -8.997847
321 107 2 0.5564 -4.388128 -8.221341 -7.687035
322 108 1 -1.1128 -1.618946 9.004125 5.269215
323 108 2 0.5564 -1.620962 9.013513 6.226366
324 108 2 0.5564 -2.544001 8.957362 5.027725
325 109 1 -1.1128 8.499188 5.732947 -4.116945
326 109 2 0.5564 8.443904 5.629243 -5.066904
327 109 2 0.5564 9.000223 4.97282 -3.821307
328 110 1 -1.1128 8.918916 -3.165969 3.948094
329 110 2 0.5564 8.778426 -3.436653 4.855411
330 110 2 0.5564 9.006043 -3.986834 3.463511
331 111 1 -1.1128 7.513137 -5.173785 -1.88093
332 111 2 0.5564 7.394617 -4.972597 -0.952648
333 111 2 0.5564 6.628307 -5.154544 -2.245536
334 112 1 -1.1128 0.450304 1.240668 -5.794972
335 112 2 0.5564 1.26681 1.0957 -6.273025
336 112 2 0.5564 -0.018018 1.895402 -6.312881
337 113 1 -1.1128 6.739953 -1.967225 -5.471607
338 113 2 0.5564 7.409515 -2.626079 -5.287679
339 113 2 0.5564 6.97855 -1.615522 -6.329283
340 114 1 -1.1128 1.141853 3.924689 6.384623
341 114 2 0.5564 0.570257 4.685947 6.484609
342 114 2 0.5564 1.978662 4.289132 6.096242
343 115 1 -1.1128 -0.163947 4.762723 -4.08312
344 115 2 0.5564 -0.850403 4.097012 -4.126012
345 115 2 0.5564 -0.406937 5.310249 -3.336525
346 116 1 -1.1128 4.334923 -6.435161 2.33778
347 116 2 0.5564 3.86259 -6.873445 3.045623
348 116 2 0.5564 4.035733 -6.87437 1.541656
349 117 1 -1.1128 -1.772501 -8.246292 -1.914874
350 117 2 0.5564 -2.66884 -8.562101 -2.029215
351 117 2 0.5564 -1.223384 -9.00256 -2.12166
352 118 1 -1.1128 -6.28929 8.70678 -6.312359
353 118 2 0.5564 -6.457942 9.00038 -7.207673
354 118 2 0.5564 -5.397217 9.000493 -6.127507
355 119 1 -1.1128 -3.100264 2.308363 -8.853839
356 119 2 0.5564 -3.586514 1.4971 -9.000965
357 119 2 0.5564 -2.184992 2.069491 -9.000295
358 120 1 -1.1128 -1.704378 -9.000139 7.097679
359 120 2 0.5564 -1.168218 -8.207981 7.133038
360 120 2 0.5564 -2.600944 -8.679001 7.001391
361 121 1 -1.1128 -6.363242 2.794816 9.002894
362 121 2 0.5564 -6.766447 3.66295 9.004032
363 121 2 0.5564 -5.421757 2.967473 9.00815
364 122 1 -1.1128 1.541374 -5.58637 8.995385
365 122 2 0.5564 0.767373 -5.023562 9.015421
366 122 2 0.5564 1.241891 -6.391351 8.572837
367 123 1 -1.1128 1.983362 4.904864 -2.20668
368 123 2 0.5564 1.812287 4.394048 -2.997902
369 123 2 0.5564 1.148773 4.908087 -1.737978
370 124 1 -1.1128 7.732375 0.415662 0.036989
371 124 2 0.5564 7.214996 0.507456 0.837067
372 124 2 0.5564 8.632951 0.586596 0.312629
373 125 1 -1.1128 8.660162 2.343891 -7.477246
374 125 2 0.5564 8.592855 3.012968 -8.158448
375 125 2 0.5564 7.752729 2.125611 -7.264759
376 126 1 -1.1128 -1.267766 8.164051 3.26724
377 126 2 0.5564 -0.626259 7.697924 3.803362
378 126 2 0.5564 -0.857176 9.008584 3.081738
379 127 1 -1.1128 0.549892 0.636185 6.793555
380 127 2 0.5564 0.500198 1.58003 6.642163
381 127 2 0.5564 1.016707 0.295021 6.030717
382 128 1 -1.1128 1.056368 -9.035526 -0.260866
383 128 2 0.5564 0.262523 -8.947595 0.266686
384 128 2 0.5564 0.755871 -8.939128 -1.164548
385 129 1 -1.1128 2.538501 3.056101 2.302373
386 129 2 0.5564 2.529538 2.94705 3.253299
387 129 2 0.5564 1.649274 2.833369 2.026879
388 130 1 -1.1128 -6.367701 6.828438 5.108116
389 130 2 0.5564 -5.825564 6.071316 4.886563
390 130 2 0.5564 -7.248025 6.469177 5.218536
391 131 1 -1.1128 -3.907634 1.736543 -6.423307
392 131 2 0.5564 -3.874469 1.743837 -5.46671
393 131 2 0.5564 -3.413667 2.513048 -6.686492
394 132 1 -1.1128 -6.601799 6.942043 2.924377
395 132 2 0.5564 -6.835112 6.929079 1.996137
396 132 2 0.5564 -5.652296 7.062979 2.931504
397 133 1 -1.1128 -0.924105 -9.003377 3.955401
398 133 2 0.5564 -1.475667 -9.012665 4.737658
399 133 2 0.5564 -1.540019 -8.910664 3.228568
400 134 1 -1.1128 -6.922739 3.380755 5.482892
401 134 2 0.5564 -6.795552 3.290043 4.538526
402 134 2 0.5564 -6.936765 4.325935 5.633461
403 135 1 -1.1128 -4.124868 4.689495 0.825243
404 135 2 0.5564 -3.875743 4.876838 -0.079783
405 135 2 0.5564 -3.296733 4.50711 1.26927
406 136 1 -1.1128 -8.331603 -3.917237 -0.539447
407 136 2 0.5564 -9.001893 -3.608536 0.070181
408 136 2 0.5564 -8.568578 -4.827724 -0.715768
409 137 1 -1.1128 0.481843 6.894158 0.863178
410 137 2 0.5564 0.415534 7.186201 1.772324
411 137 2 0.5564 1.396183 7.050454 0.626988
412 138 1 -1.1128 -8.100676 7.753634 -4.905871
413 138 2 0.5564 -8.999485 7.866438 -4.596599
414 138 2 0.5564 -8.168092 7.107546 -5.608906
415 139 1 -1.1128 5.175797 8.555514 -2.232952
416 139 2 0.5564 5.044669 7.870284 -1.577592
417 139 2 0.5564 4.330234 9.00086 -2.287011
418 140 1 -1.1128 -3.257928 3.851828 4.119855
419 140 2 0.5564 -3.005401 3.573734 3.239443
420 140 2 0.5564 -3.619849 3.064126 4.525774
421 141 1 -1.1128 0.253266 1.629425 4.45739
422 141 2 0.5564 0.226505 1.524128 3.506375
423 141 2 0.5564 0.9228 2.297123 4.60617
424 142 1 -1.1128 -8.127042 3.021945 2.34235
425 142 2 0.5564 -7.772486 3.839269 1.992343
426 142 2 0.5564 -8.995144 3.257611 2.669601
427 143 1 -1.1128 -4.35841 7.166559 8.912056
428 143 2 0.5564 -3.453806 6.858581 8.856621
429 143 2 0.5564 -4.87585 6.370601 9.034273
430 144 1 -1.1128 2.614715 7.433182 -2.053371
431 144 2 0.5564 2.588975 6.822554 -1.316688
432 144 2 0.5564 2.032055 7.045853 -2.706606
433 145 1 -1.1128 -6.124224 5.737946 -7.196011
434 145 2 0.5564 -6.063092 5.925896 -8.132584
435 145 2 0.5564 -6.400151 6.565796 -6.802616
436 146 1 -1.1128 -9.005293 6.843224 2.345086
437 146 2 0.5564 -8.996634 6.843048 3.302247
438 146 2 0.5564 -8.943985 5.918818 2.104364
439 147 1 -1.1128 3.875711 -8.993406 -2.089684
440 147 2 0.5564 4.409879 -9.002758 -1.29545
441 147 2 0.5564 4.501696 -8.843623 -2.798161
442 148 1 -1.1128 5.031735 9.009574 -5.464373
443 148 2 0.5564 5.04761 8.999816 -6.421392
444 148 2 0.5564 5.952344 8.952699 -5.20849
445 149 1 -1.1128 -8.538413 9.025275 -1.746778
446 149 2 0.5564 -8.667471 8.900489 -0.806562
447 149 2 0.5564 -9.00966 8.297505 -2.152375
448 150 1 -1.1128 2.382619 8.585502 -9.000501
449 150 2 0.5564 2.409942 7.640837 -8.848537
450 150 2 0.5564 3.225609 8.904839 -8.678595
451 151 1 -1.1128 -5.553619 -3.459166 1.151159
452 151 2 0.5564 -4.997229 -2.90618 1.699673
453 151 2 0.5564 -6.013818 -4.025753 1.770375
454 152 1 -1.1128 -2.651519 -1.833057 -2.71145
455 152 2 0.5564 -2.825588 -0.902607 -2.85356
456 152 2 0.5564 -3.353262 -2.283071 -3.181851
457 153 1 -1.1128 -4.837408 3.477207 -1.88846
458 153 2 0.5564 -4.349493 3.763769 -2.660505
459 153 2 0.5564 -5.716952 3.289777 -2.216339
460 154 1 -1.1128 -9.029838 4.839111 4.204262
461 154 2 0.5564 -8.962415 5.022992 5.141211
462 154 2 0.5564 -8.131514 4.907827 3.880958
463 155 1 -1.1128 4.465703 4.848203 -2.592281
464 155 2 0.5564 4.962003 5.514629 -3.067459
465 155 2 0.5564 4.109312 5.310032 -1.83338
466 156 1 -1.1128 0.414187 -6.116748 -5.8061
467 156 2 0.5564 0.388076 -6.092327 -4.849568
468 156 2 0.5564 -0.473984 -6.363252 -6.064207
469 157 1 -1.1128 -5.686784 2.978292 -6.070255
470 157 2 0.5564 -6.007641 3.425332 -6.853478
471 157 2 0.5564 -5.054206 3.586967 -5.68869
472 158 1 -1.1128 6.276217 -7.748823 -6.293149
473 158 2 0.5564 5.745743 -8.086537 -7.014799
474 158 2 0.5564 6.817755 -8.491318 -6.025437
475 159 1 -1.1128 -4.204129 -5.763395 -2.832947
476 159 2 0.5564 -3.691707 -6.214649 -2.162109
477 159 2 0.5564 -4.108131 -4.834287 -2.623722
478 160 1 -1.1128 2.077307 -2.309361 -8.895604
479 160 2 0.5564 1.706068 -3.035105 -8.393898
480 160 2 0.5564 2.583301 -1.809068 -8.255362
481 161 1 -1.1128 -4.167133 -8.217847 8.487174
482 161 2 0.5564 -3.764522 -9.011216 8.840304
483 161 2 0.5564 -5.022817 -8.504571 8.16807
484 162 1 -1.1128 0.212876 -6.76493 4.320554
485 162 2 0.5564 0.037863 -7.068441 3.429777
486 162 2 0.5564 -0.568457 -7.010928 4.815765
487 163 1 -1.1128 -5.286889 3.663271 6.925437
488 163 2 0.5564 -4.824196 3.951378 6.138582
489 163 2 0.5564 -5.560928 4.474502 7.353268
490 164 1 -1.1128 7.431429 -8.993758 -2.975788
491 164 2 0.5564 7.373668 -9.008637 -2.020448
492 164 2 0.5564 6.941554 -8.212902 -3.233699
493 165 1 -1.1128 7.448809 -4.797136 -4.523167
494 165 2 0.5564 7.824585 -4.2348 -3.845817
495 165 2 0.5564 7.794078 -5.668792 -4.330203
496 166 1 -1.1128 1.607786 -0.508108 -4.50864
497 166 2 0.5564 1.767472 0.398854 -4.247579
498 166 2 0.5564 0.65504 -0.575519 -4.571597
499 167 1 -1.1128 -3.624294 4.030591 8.316432
500 167 2 0.5564 -3.205137 4.432956 7.555747
501 167 2 0.5564 -3.502795 4.666323 9.021638
502 168 1 -1.1128 -0.217151 1.547967 0.683798
503 168 2 0.5564 0.373928 1.178285 1.339688
504 168 2 0.5564 0.173307 2.392093 0.457465
505 169 1 -1.1128 6.925667 -7.00882 5.784285
506 169 2 0.5564 7.145388 -6.465191 6.540871
507 169 2 0.5564 6.406766 -7.726665 6.147152
508 170 1 -1.1128 -8.941725 -2.724395 7.278579
509 170 2 0.5564 -9.000278 -2.732511 8.233952
510 170 2 0.5564 -9.001729 -1.798753 7.042319
511 171 1 -1.1128 -2.474453 -3.970133 -5.132661
512 171 2 0.5564 -2.874118 -4.383067 -5.898158
513 171 2 0.5564 -3.122539 -4.077249 -4.436427
514 172 1 -1.1128 -4.312867 -6.996364 -4.650885
515 172 2 0.5564 -3.787713 -7.538682 -4.062382
516 172 2 0.5564 -3.954084 -7.169778 -5.521192
517 173 1 -1.1128 3.762773 -0.234395 -4.921867
518 173 2 0.5564 4.048176 -0.1835 -4.009624
519 173 2 0.5564 3.72414 0.67682 -5.212432
520 174 1 -1.1128 -2.873885 3.703671 -4.917235
521 174 2 0.5564 -2.837205 3.152754 -4.135329
522 174 2 0.5564 -3.052193 4.582808 -4.583235
523 175 1 -1.1128 -8.187172 7.229916 -9.004848
524 175 2 0.5564 -7.283758 7.545575 -8.984023
525 175 2 0.5564 -8.176178 6.435495 -8.470988
526 176 1 -1.1128 -6.560524 -2.156538 3.052161
527 176 2 0.5564 -7.165676 -2.543474 3.684856
528 176 2 0.5564 -6.378002 -1.282852 3.397981
529 177 1 -1.1128 -6.445024 -5.388236 -1.029732
530 177 2 0.5564 -6.444987 -4.98006 -0.163924
531 177 2 0.5564 -5.573778 -5.775981 -1.11229
532 178 1 -1.1128 -4.787225 -5.864176 8.838734
533 178 2 0.5564 -5.464985 -6.519214 9.005464
534 178 2 0.5564 -5.20287 -5.028929 9.052822
535 179 1 -1.1128 -0.774436 5.620209 8.00725
536 179 2 0.5564 -0.749889 5.635321 8.964016
537 179 2 0.5564 -1.640263 5.961855 7.783972
538 180 1 -1.1128 0.081679 0.232792 -1.799429
539 180 2 0.5564 0.696914 -0.170529 -2.411843
540 180 2 0.5564 0.634158 0.5873 -1.102777
541 181 1 -1.1128 8.21353 0.076452 -8.588288
542 181 2 0.5564 8.410509 0.06233 -7.651681
543 181 2 0.5564 9.010033 -0.251155 -9.006005
544 182 1 -1.1128 3.516702 5.840553 6.348624
545 182 2 0.5564 4.373258 6.030858 5.966095
546 182 2 0.5564 3.616365 6.051096 7.277048
547 183 1 -1.1128 -3.577781 -8.132853 3.509893
548 183 2 0.5564 -3.135764 -7.666555 4.219413
549 183 2 0.5564 -4.302281 -7.55917 3.260455
550 184 1 -1.1128 6.408471 7.278562 -6.557222
551 184 2 0.5564 6.219825 6.794139 -7.36095
552 184 2 0.5564 6.2912 6.6366 -5.856962
553 185 1 -1.1128 -4.788761 -2.440559 -6.977391
554 185 2 0.5564 -4.74087 -2.429854 -6.021449
555 185 2 0.5564 -5.697148 -2.212267 -7.174742
556 186 1 -1.1128 -2.23835 -4.498334 -1.51476
557 186 2 0.5564 -2.822409 -4.731686 -0.793196
558 186 2 0.5564 -1.413874 -4.262503 -1.08949
559 187 1 -1.1128 -8.541206 -0.085987 -5.445701
560 187 2 0.5564 -8.718177 0.653287 -6.027411
561 187 2 0.5564 -8.93181 -0.839062 -5.889027
562 188 1 -1.1128 -0.856295 -2.627016 0.982372
563 188 2 0.5564 -0.577088 -2.57575 1.896509
564 188 2 0.5564 -0.261658 -3.263291 0.585141
565 189 1 -1.1128 1.189644 1.31823 -8.999834
566 189 2 0.5564 0.509546 1.208956 -8.335185
567 189 2 0.5564 1.654101 0.481303 -9.007799
568 190 1 -1.1128 3.008254 -6.630467 -6.135162
569 190 2 0.5564 2.55312 -6.340436 -5.344613
570 190 2 0.5564 2.442747 -7.310083 -6.50198
571 191 1 -1.1128 -1.404728 8.773394 -8.276714
572 191 2 0.5564 -0.82015 9.000101 -8.999973
573 191 2 0.5564 -2.278615 9.001109 -8.594047
574 192 1 -1.1128 3.465921 6.585545 -6.642489
575 192 2 0.5564 4.274226 6.083585 -6.538028
576 192 2 0.5564 3.733253 7.376102 -7.111301
577 193 1 -1.1128 -1.878575 -1.88554 -4.769709
578 193 2 0.5564 -2.376663 -1.819371 -5.584425
579 193 2 0.5564 -1.530864 -1.004929 -4.62881
580 194 1 -1.1128 8.946292 -6.040497 4.267165
581 194 2 0.5564 8.045059 -5.738597 4.380601
582 194 2 0.5564 8.878812 -6.772478 3.654073
583 195 1 -1.1128 7.271819 -1.531707 4.06457
584 195 2 0.5564 7.171503 -1.936945 4.925936
585 195 2 0.5564 8.133675 -1.116271 4.093701
586 196 1 -1.1128 -8.423851 -8.35015 -3.156189
587 196 2 0.5564 -9.016707 -7.671054 -2.834347
588 196 2 0.5564 -9.00147 -9.014998 -3.53111
589 197 1 -1.1128 -8.999771 -5.723772 -5.444748
590 197 2 0.5564 -8.623094 -4.911595 -5.106053
591 197 2 0.5564 -9.006855 -5.607138 -6.39479
592 198 1 -1.1128 -5.751701 7.215061 7.184329
593 198 2 0.5564 -6.425903 6.609161 7.49185
594 198 2 0.5564 -5.050425 6.64962 6.860726
595 199 1 -1.1128 4.121048 3.348196 -0.435206
596 199 2 0.5564 4.032625 2.529016 0.051988
597 199 2 0.5564 3.99239 3.098318 -1.350215
598 200 1 -1.1128 -7.694852 -8.964641 -5.639827
599 200 2 0.5564 -7.503566 -8.045036 -5.455523
600 200 2 0.5564 -8.649262 -9.003524 -5.701643
601 201 1 -1.1128 1.789885 3.202739 8.964477
602 201 2 0.5564 1.621572 2.636927 8.210979
603 201 2 0.5564 1.457809 4.060475 8.699435
604 202 1 -1.1128 5.099692 -3.807831 -1.318261
605 202 2 0.5564 4.159896 -3.855113 -1.4937
606 202 2 0.5564 5.255802 -4.487022 -0.66209
607 203 1 -1.1128 8.29818 7.196601 -2.374713
608 203 2 0.5564 8.210942 7.616615 -1.51902
609 203 2 0.5564 9.000517 7.680582 -2.809127
610 204 1 -1.1128 -8.84908 -1.740236 2.518284
611 204 2 0.5564 -9.006093 -0.797228 2.470175
612 204 2 0.5564 -8.997785 -2.0541 1.626315
613 205 1 -1.1128 8.111833 -2.028411 2.092912
614 205 2 0.5564 7.399453 -1.440175 1.842463
615 205 2 0.5564 7.731277 -2.904752 2.034303
616 206 1 -1.1128 -3.212023 -3.205533 -8.303991
617 206 2 0.5564 -3.589942 -4.007872 -7.943906
618 206 2 0.5564 -3.835617 -2.926368 -8.974386
619 207 1 -1.1128 4.259586 -6.923326 8.916062
620 207 2 0.5564 3.320558 -6.878429 9.09618
621 207 2 0.5564 4.563062 -6.019165 8.997472
622 208 1 -1.1128 -2.636088 -6.298398 2.571602
623 208 2 0.5564 -3.162832 -6.348996 1.773973
624 208 2 0.5564 -1.907839 -6.900007 2.416837
625 209 1 -1.1128 8.456591 -2.558686 -0.013522
626 209 2 0.5564 9.005546 -3.283867 0.284793
627 209 2 0.5564 9.004312 -1.781585 0.097597
628 210 1 -1.1128 -2.893621 -2.202702 0.269957
629 210 2 0.5564 -2.697294 -2.544333 -0.602383
630 210 2 0.5564 -3.756469 -1.798048 0.180626
631 211 1 -1.1128 -7.899793 -3.758191 -6.834007
632 211 2 0.5564 -7.685136 -3.097555 -7.492578
633 211 2 0.5564 -7.128406 -3.792628 -6.268315
634 212 1 -1.1128 -7.252196 0.595753 4.134469
635 212 2 0.5564 -7.238782 1.227362 3.415357
636 212 2 0.5564 -6.990024 1.101949 4.903405
637 213 1 -1.1128 -6.073088 -2.610376 8.865939
638 213 2 0.5564 -6.955605 -2.955552 9.001033
639 213 2 0.5564 -5.963353 -2.597558 7.915136
640 214 1 -1.1128 -2.994772 -0.246865 4.166161
641 214 2 0.5564 -3.284583 -0.397268 5.06595
642 214 2 0.5564 -2.077216 -0.519433 4.160835
643 215 1 -1.1128 5.915102 4.870233 8.542546
644 215 2 0.5564 5.689504 5.679708 9.000899
645 215 2 0.5564 5.466838 4.938834 7.699584
646 216 1 -1.1128 3.874372 5.568394 -8.638977
647 216 2 0.5564 4.238294 6.375137 -9.003612
648 216 2 0.5564 2.989674 5.519077 -9.00107
649 217 1 -1.1128 6.080596 0.23983 -4.735953
650 217 2 0.5564 5.808333 0.125899 -5.646515
651 217 2 0.5564 6.910653 0.713322 -4.791109
652 218 1 -1.1128 8.706903 2.38712 8.521316
653 218 2 0.5564 9.006015 1.615007 9.00153
654 218 2 0.5564 7.940134 2.690068 9.007649
655 219 1 -1.1128 -0.336269 7.263821 6.582762
656 219 2 0.5564 0.510077 6.880978 6.351758
657 219 2 0.5564 -0.94253 6.919234 5.927065
658 220 1 -1.1128 6.803076 7.709177 6.898845
659 220 2 0.5564 6.178568 7.078436 7.257156
660 220 2 0.5564 7.164672 7.276088 6.125596
661 221 1 -1.1128 -7.3191 -9.011659 6.288356